1040
Lattice="22.08 0.0 0.0 0.0 22.08 0.0 0.0 0.0 22.08" Properties=species:S:1:pos:R:3 energy=-148.22180449885832 pbc="T T T"
N       18.73528318       6.71263911       1.76149118      
N       19.67071542       6.52021791      -0.13450321      
C       19.76564874       6.19056271       1.12293581      
H       20.48844483       5.52751323       1.55096674      
C       17.98487433       7.44991313       0.87506409      
H       17.09185132       7.88200368       1.28195160      
C       18.49920604       7.18178253      -0.29399529      
H       18.10007088       7.41079573      -1.27988704      
C       18.29395965       6.57576477       3.13293015      
H       19.11819794       6.27098100       3.76697314      
H       17.50799185       5.85107779       3.26697843      
H       17.80239081       7.46691559       3.57303849      
C       20.74935155       6.22050659      -1.15576081      
H       21.27509015       5.36832904      -0.81604787      
H       20.11232515       6.12079636      -2.02978210      
C       21.65084916       7.44877125      -1.42045107      
H       22.16913944       7.56457278      -0.46551927      
H       22.44358999       6.98608456      -2.08492758      
H       21.04814715       8.35606520      -1.77151478      
N       20.30154996      11.29719351       2.76423277      
N       22.10088214      12.21165470       2.17081509      
C       20.97340349      12.41702436       2.76946279      
H       20.64129115      13.38657984       3.16596452      
C       21.02135338      10.33018760       2.13596927      
H       20.63364360       9.34011052       2.18017962      
C       22.21413829      10.88172627       1.79951132      
H       23.14743424      10.46185191       1.40040436      
C       19.02908364      11.18460360       3.33313487      
H       19.14844411      11.47268204       4.38863509      
H       18.57576718      10.22291469       3.32510236      
H       18.47875620      11.89728088       2.75413089      
C       23.15779084      13.26467067       1.85377763      
H       23.09237717      13.53580575       0.81897739      
H       22.79102113      14.08594335       2.45624321      
C       24.56402193      12.77334611       2.29145741      
H       24.55946185      12.24376228       3.19788935      
H       25.04446491      12.04358555       1.65926826      
H       25.23074871      13.64902107       2.20146945      
N       12.44988425      21.79411149       1.96070305      
N       14.46694424      21.95052144       1.16293126      
C       13.32354632      22.56171216       1.26691039      
H       13.06405425      23.50050244       1.01433264      
C       13.09318037      20.67063414       2.32809195      
H       12.66923349      19.98840176       2.96433244      
C       14.39977705      20.79604424       1.93623173      
H       15.13591389      20.10046084       2.17550785      
C       11.13027654      22.13339710       2.44435985      
H       10.51295668      21.24102059       2.55559280      
H       10.71697382      22.83696327       1.77707974      
H       11.23335877      22.58781906       3.49397982      
C       15.65118399      22.35974912       0.42708606      
H       15.19895899      22.96473031      -0.35556521      
H       16.22818959      22.95460537       1.14150804      
C       16.40896441      21.17680425      -0.14142555      
H       17.28138268      21.40889324      -0.74821404      
H       16.72726456      20.50709975       0.66513748      
H       15.69440593      20.61908416      -0.73162503      
N        6.18217407      18.43849399       6.48616593      
N        6.49517631      17.70306207       4.45176049      
C        6.85833164      17.59668049       5.74049806      
H        7.53659918      16.87059158       6.11722194      
C        5.56254574      19.30071326       5.59011584      
H        5.03838041      20.17498430       5.98656180      
C        5.69332826      18.85164277       4.34501759      
H        5.19501085      19.18862966       3.45230261      
C        6.12478083      18.71688477       7.95202872      
H        6.91449389      19.43596391       8.22247977      
H        6.28756487      17.86955401       8.59352936      
H        5.16089017      19.14171962       8.23753944      
C        6.90917356      16.82885602       3.38866468      
H        7.82989835      16.34301727       3.76545519      
H        6.09248097      16.14336072       3.25590505      
C        7.24979598      17.46160350       2.05009312      
H        8.14494050      18.03585291       2.20238106      
H        7.48120130      16.62800673       1.40794031      
H        6.43290541      18.01257890       1.62468650      
N        5.35584433      14.30160703      16.40005390      
N        6.50907197      12.83519826      15.32904372      
C        6.18517743      14.07912893      15.40395091      
H        6.43018572      14.72467826      14.65227088      
C        5.02478103      13.05613358      16.88524473      
H        4.36716635      13.00427235      17.70903299      
C        5.81150257      12.20909107      16.37617558      
H        5.86986588      11.19994686      16.32987876      
C        4.67086699      15.56272687      16.62640055      
H        3.60536612      15.53392864      16.27207186      
H        5.17672726      16.33300193      16.05919441      
H        4.58848851      15.86726741      17.64956070      
C        7.36513205      12.23003331      14.29814304      
H        6.70652509      11.63941292      13.61174477      
H        7.65186355      13.09705951      13.72857756      
C        8.43574255      11.27306912      14.84271492      
H        9.06985493      11.82159158      15.56704809      
H        7.99233553      10.37559952      15.38290023      
H        9.24827509      10.97967922      14.14605910      
N       16.65745984      16.48797213      10.05923573      
N       15.98656911      14.52905976      10.52341752      
C       16.48444826      15.64697294      11.02420420      
H       16.68617051      15.79127645      12.10173717      
C       16.32529161      15.85951976       8.91144557      
H       16.37320008      16.34796393       7.99733354      
C       15.93510161      14.72694409       9.13464975      
H       15.61792780      13.91201037       8.53092209      
C       17.16960878      17.80686128      10.05756496      
H       17.84267731      17.88618562       9.18987279      
H       17.62463655      18.00439795      11.05205028      
H       16.36644429      18.58657638       9.92015408      
C       15.57933042      13.36472489      11.21560404      
H       16.33970771      13.10224411      11.88968425      
H       14.65163816      13.48772406      11.69137190      
C       15.32295587      12.26625005      10.26810237      
H       15.56905914      11.36499474      10.83225925      
H       14.31476578      12.29448596       9.83972791      
H       15.90527243      12.18203061       9.37313701      
N        9.20880665      13.54283542      19.25784753      
N       11.14339507      13.83270302      20.15781194      
C       10.42909472      13.10741879      19.35742308      
H       10.77266420      12.13199271      19.05944316      
C        9.09969372      14.74195747      19.95056178      
H        8.19188964      15.34209614      19.98653805      
C       10.27743494      14.89858952      20.55381349      
H       10.56013461      15.62855394      21.21643175      
C        8.14179610      12.76861313      18.60798501      
H        7.39362115      13.49043132      18.24145597      
H        7.75491300      12.06637095      19.36000307      
H        8.65836019      12.22353802      17.76832314      
C       12.47851537      13.53119573      20.70373178      
H       12.77250917      12.57960169      20.21384766      
H       13.06995966      14.26152289      20.29540138      
C       12.65573855      13.44257082      22.17813599      
H       12.15931910      14.26580320      22.63756763      
H       12.31589833      12.45645789      22.58485963      
H       13.74317564      13.45588289      22.45709507      
N        0.24236317      13.95871729      14.11788590      
N       -0.44293509      14.69886929      16.05556993      
C       -0.79950770      14.37721983      14.80785844      
H       -1.79663464      14.30039171      14.48282886      
C        1.37883028      14.30899735      14.82153614      
H        2.38066603      14.15404610      14.50927776      
C        0.94751764      14.67263954      16.03131677      
H        1.53101132      14.95664651      16.80057089      
C        0.13186460      13.38318774      12.75676958      
H       -0.89846811      12.91461400      12.73642824      
H        0.75415172      12.51097029      12.66163198      
H        0.47529097      14.13948333      11.96128362      
C       -1.28376724      15.28191638      17.14940946      
H       -2.26370359      15.52707243      16.78820055      
H       -1.30948020      14.43796166      17.83471323      
C       -0.69147589      16.49086412      17.78075355      
H       -0.27968885      17.13347736      17.03217589      
H       -1.55516777      16.97738425      18.16581524      
H        0.03241151      16.25760158      18.51409665      
N        0.98323331       1.06038196       9.74359441      
N       -0.84818099       1.55884047       8.73418442      
C        0.46247755       1.45549013       8.64419679      
H        1.01382446       2.03054767       7.92680465      
C       -0.10955455       0.59937574      10.49529151      
H        0.02536482       0.06043074      11.42846953      
C       -1.24316276       0.98003968       9.94785216      
H       -2.29454630       0.79119948      10.21017174      
C        2.41663899       1.01970352       9.99996121      
H        2.78893246       0.02537461      10.27391990      
H        2.65120892       1.85062233      10.65301765      
H        2.85150232       1.30639773       9.10749257      
C       -1.72557258       1.86379000       7.60839843      
H       -2.39027051       2.61567314       8.05062764      
H       -1.02185571       2.25391704       6.83345200      
C       -2.44879077       0.72632756       6.98092151      
H       -3.13684448       0.22204449       7.66151590      
H       -2.89945684       1.07819127       6.02169815      
H       -1.75559580      -0.10769878       6.80733086      
N        6.45085581       4.71213429      11.79692170      
N        7.63214528       3.34503595      12.97640827      
C        7.37753869       4.63767056      12.72573142      
H        7.82245918       5.42735986      13.25423800      
C        6.06111113       3.44221128      11.36803253      
H        5.27224295       3.31417096      10.65775380      
C        6.91929180       2.61774497      12.04939708      
H        7.16280519       1.60198545      12.00157731      
C        5.88556821       5.93091032      11.18929801      
H        6.52265041       6.76112064      11.45589426      
H        4.89937866       6.10649105      11.44316789      
H        5.89494728       5.77629520      10.13204578      
C        8.72047855       2.82355946      13.89895548      
H        9.09201161       3.53765429      14.59824484      
H        8.17006040       2.16393080      14.54388956      
C        9.89178718       2.18329064      13.20166354      
H       10.73835038       1.92002066      13.80757254      
H        9.51207748       1.25521006      12.73358818      
H       10.26092335       2.69841683      12.40240716      
N        4.03440291       7.39101138       1.90313702      
N        3.60289834       6.45154613       0.02373502      
C        3.48059283       7.52474013       0.72270602      
H        3.06311873       8.39227870       0.34378598      
C        4.26012150       6.06095037       2.07292334      
H        4.55411311       5.57423576       2.93412803      
C        4.14097474       5.46040641       0.87732895      
H        4.36056474       4.43741830       0.51289370      
C        4.32178161       8.48969779       2.78831153      
H        5.38249004       8.65195871       2.70370750      
H        4.28172714       8.17325904       3.82517402      
H        3.83706381       9.46314302       2.59670466      
C        3.24899838       6.18175890      -1.36314691      
H        2.65518201       5.27986616      -1.30363129      
H        2.71109370       7.02597617      -1.67703270      
C        4.48542538       5.90360768      -2.33058806      
H        5.16679021       6.79263802      -2.30093980      
H        5.07201336       5.06596544      -2.11759382      
H        4.00480853       5.74157830      -3.24481785      
N        7.88466107       8.44467545      21.06133882      
N        9.35476567       8.60249157      19.50880583      
C        8.32213036       9.22565789      20.05236884      
H        8.04477056      10.17879772      19.87141131      
C        8.59266232       7.25241504      20.95114956      
H        8.31186574       6.38009443      21.44164927      
C        9.57981348       7.38310149      20.15527770      
H       10.31922626       6.66193014      19.86446530      
C        6.80484627       8.67035517      22.01616138      
H        7.19241513       8.73073394      22.99473762      
H        6.06161304       7.81457499      21.99307584      
H        6.29025980       9.53756767      21.63268147      
C       10.13953627       9.11468753      18.37416731      
H        9.82197380       8.57216170      17.53279287      
H        9.72528670      10.08844117      18.14057013      
C       11.67307114       9.40780647      18.57947604      
H       12.21812420       9.85189379      17.72635000      
H       11.64468808      10.11063701      19.43243873      
H       12.22571134       8.51214646      18.86584401      
N        9.37369614      14.05221470       4.42936818      
N        8.02701730      13.02806069       3.09194663      
C        8.29450681      13.31462748       4.32221770      
H        7.66027761      13.01350708       5.12031319      
C       10.00747048      14.08741210       3.13741809      
H       10.85932778      14.55734074       2.84368364      
C        9.18981747      13.36801358       2.36559015      
H        9.20803348      12.98371605       1.35804874      
C        9.98725696      14.54954659       5.70099349      
H        9.38001924      15.36635338       5.97263686      
H       11.03280265      14.85237521       5.58422484      
H        9.91919230      13.88594465       6.54735414      
C        6.83674416      12.35472374       2.56309743      
H        7.08959362      11.30431037       2.41176440      
H        5.98646863      12.44044558       3.19964509      
C        6.38253415      13.10610539       1.29628346      
H        5.36913977      12.90274379       1.22893096      
H        6.50586003      14.18009850       1.43856681      
H        6.86100412      12.78600547       0.33740002      
N       15.52385769      19.87961957      13.81788618      
N       17.28087795      18.83250737      14.45848750      
C       16.61057684      19.27089243      13.44573133      
H       16.86680961      19.18205764      12.44146385      
C       15.49672008      19.89422126      15.21708172      
H       14.69305451      20.31157841      15.71861824      
C       16.57774526      19.16335889      15.65487703      
H       16.93357371      18.89052686      16.64822924      
C       14.57428525      20.54373540      12.96443032      
H       14.92250689      20.88351935      12.04719462      
H       14.12179455      21.33193224      13.46803558      
H       13.77597761      19.79523053      12.87444215      
C       18.47824799      17.97508632      14.38099482      
H       18.11700086      16.96591663      14.61347760      
H       18.82254744      17.98810763      13.39803424      
C       19.66987184      18.53488662      15.20022810      
H       20.66563932      18.18904127      14.80304831      
H       19.71622498      19.61758797      15.21808304      
H       19.55082639      18.13724777      16.28139121      
N       10.52543779      20.19296395       5.80023517      
N       12.46282156      19.20563410       5.76115862      
C       11.16205531      19.04498713       5.63353261      
H       10.67692004      18.16672071       5.33117582      
C       11.43627075      21.12592186       6.16582929      
H       11.15125954      22.11058049       6.50956807      
C       12.62275503      20.51806917       5.97909569      
H       13.56380857      20.96239269       6.10481678      
C        9.16071994      20.52024118       5.39702947      
H        8.85748075      19.84824129       4.57244342      
H        9.24022192      21.57163491       5.09393642      
H        8.55024605      20.36714139       6.21575223      
C       13.58068982      18.26376112       5.60509208      
H       13.05898222      17.35070868       5.64589682      
H       14.12052515      18.48072399       4.62696897      
C       14.42453317      18.24026700       6.87345440      
H       15.20201840      18.97775159       6.82748818      
H       13.79222793      18.49613316       7.69569658      
H       14.96771122      17.34186832       6.96206727      
N       15.19531170      15.02022497      16.38681166      
N       16.81587827      13.82522239      17.07642640      
C       15.54578776      14.21964923      17.33801938      
H       14.99763715      13.87527253      18.18902264      
C       16.09554589      14.91729434      15.34202859      
H       15.91546632      15.51569675      14.51231615      
C       17.16440170      14.12225693      15.81890856      
H       18.07933280      13.87328560      15.35723701      
C       14.01179584      15.87466095      16.42074268      
H       13.28618441      15.50243718      15.80330147      
H       14.44728879      16.85010382      16.11798603      
H       13.78366117      15.95358869      17.45015126      
C       17.65427055      13.02086387      18.00132780      
H       18.12813524      13.61453811      18.82654796      
H       16.96057204      12.45057701      18.55772465      
C       18.50869095      11.99062880      17.29995278      
H       19.35592940      12.40374788      16.71852764      
H       18.89493438      11.23361710      17.93815444      
H       17.91192357      11.52069797      16.53798740      
N       13.92105994       2.69788352      15.52353585      
N       14.51729940       4.66288688      16.20454479      
C       14.33177889       3.40587498      16.54884608      
H       14.48419728       2.98149322      17.48134342      
C       13.75871270       3.57439554      14.51356303      
H       13.35901220       3.26562321      13.60229122      
C       14.13163322       4.82103692      14.89160475      
H       14.24863678       5.78673717      14.38557720      
C       13.42604400       1.33917851      15.45722510      
H       13.19364657       1.22780660      14.39997174      
H       12.58333861       1.46973827      16.08051260      
H       14.16029516       0.60250837      15.68815542      
C       14.89466596       5.75938894      17.10111726      
H       14.75026399       5.48779482      18.14706128      
H       15.96357762       6.00916268      16.97596415      
C       14.02646149       6.94010656      16.80663799      
H       12.98538782       6.58718258      16.92240319      
H       14.27442654       7.71011573      17.49546469      
H       14.21345696       7.29190815      15.80276658      
N       15.32527771       8.61184714       6.73634176      
N       14.76901449       6.62427421       6.30112312      
C       15.61258966       7.59161661       6.02605846      
H       16.33044513       7.61677709       5.23816633      
C       14.04399184       8.44186731       7.23688984      
H       13.57040293       9.22819052       7.77752373      
C       13.71099553       7.16060296       7.02164510      
H       12.84518261       6.66660144       7.35301946      
C       16.11499295       9.79142851       6.99957904      
H       16.35289484       9.77630194       8.04821365      
H       15.55338740      10.66029812       6.73780148      
H       17.04186891       9.64642007       6.45331646      
C       14.78818382       5.33009490       5.72806066      
H       15.23399546       5.34478409       4.72314720      
H       15.31548831       4.65336372       6.39659815      
C       13.39243483       4.76322963       5.59098418      
H       13.33443758       4.19783086       4.65837094      
H       13.11126214       4.05585434       6.36117818      
H       12.52919129       5.44513061       5.43431375      
N       12.87497771       4.40382143       0.61381513      
N       14.90506929       4.26799260      -0.17543196      
C       14.11707531       4.30613413       0.91175243      
H       14.47583607       4.37112885       1.85252493      
C       12.81139601       4.37413755      -0.77758295      
H       11.87154108       4.52802065      -1.24967315      
C       14.02492713       4.25115030      -1.25036398      
H       14.30205325       4.11398123      -2.23158287      
C       11.72674068       4.25429112       1.48493375      
H       10.82650963       4.46262105       0.94269761      
H       11.76142679       4.96725073       2.31682247      
H       11.51647239       3.23608533       1.85375761      
C       16.37501092       4.07070781      -0.21145893      
H       16.84459314       4.74145007       0.46893647      
H       16.65731784       3.09583843       0.05708041      
C       17.00746066       4.21479226      -1.60317126      
H       16.62522698       3.53992216      -2.35687485      
H       16.80722287       5.16202065      -1.91230485      
H       18.03912248       3.92985833      -1.49533886      
N        8.47537994      14.19451342       9.74207931      
N        9.39603604      14.83518267      11.57910908      
C        8.35866518      14.91904965      10.85031249      
H        7.52400058      15.64422359      10.85637567      
C        9.52900001      13.35628852       9.92026397      
H        9.89735627      12.59147661       9.18712108      
C       10.17590543      13.81533367      11.05622262      
H       11.13069368      13.54027047      11.51736770      
C        7.49257920      14.27195260       8.64307802      
H        7.37511691      13.34914759       8.00923198      
H        7.78330067      15.24081298       8.12783402      
H        6.51313881      14.68374912       8.93150283      
C        9.64531791      15.54342448      12.86081237      
H       10.02372020      16.51832756      12.55849703      
H        8.74809636      15.43185147      13.39445300      
C       10.67150727      14.84208598      13.81272102      
H       10.37324621      13.79791102      13.93564795      
H       11.64582118      14.89571233      13.36614012      
H       10.69907325      15.31884023      14.73816990      
N        2.79386932       2.10984224      20.14129020      
N        4.24560893       2.08644862      18.50899202      
C        3.00102149       1.95431309      18.85533162      
H        2.17791242       1.88833654      18.20100363      
C        4.03152558       1.89774218      20.64738936      
H        4.14549857       1.73214986      21.69892220      
C        4.93430079       1.91504448      19.65481335      
H        6.00776332       1.80377615      19.66447985      
C        1.55776679       1.93593001      20.90366512      
H        1.04777212       0.98498067      20.55860417      
H        0.97371344       2.77583315      20.58092624      
H        1.59749560       1.96717536      21.94169442      
C        4.80726234       2.04347623      17.12499307      
H        5.36122433       1.11329227      17.09449786      
H        3.97570486       2.02051877      16.44378317      
C        5.86334931       3.16926377      16.94081996      
H        5.44443992       4.13542706      17.00342600      
H        6.64617543       2.99050975      17.64588050      
H        6.30676273       3.08696247      15.92845507      
N        3.11721011       1.83624157       4.26312563      
N        1.13194973       2.55431712       3.89514226      
C        1.81436373       1.52800368       4.25562903      
H        1.47817405       0.52320905       4.48813016      
C        3.32990244       3.06276998       3.66703944      
H        4.26844371       3.47811446       3.51332335      
C        2.04909098       3.54099969       3.49570597      
H        1.68920799       4.47707790       3.11015988      
C        4.24628675       1.09221761       4.89184126      
H        4.73365776       1.59730515       5.71455114      
H        4.95152147       0.92649778       4.08128460      
H        3.80458397       0.19214056       5.20894765      
C       -0.36193297       2.72368104       3.88559058      
H       -0.63882472       2.68682913       2.80682682      
H       -0.74704486       1.86288711       4.39694838      
C       -0.85767995       3.96878690       4.54407968      
H       -1.89876979       4.13234999       4.68778334      
H       -0.31561627       4.12458035       5.47340945      
H       -0.60091811       4.81131999       3.91389475      
N       17.28843545       9.14225976      13.89611764      
N       18.97067053       8.40852503      15.14107260      
C       17.73622165       8.14570453      14.68488965      
H       17.18332672       7.31343664      15.07662288      
C       18.18374858      10.20862380      14.12474832      
H       18.03459081      11.24576806      13.79836775      
C       19.33548630       9.64876078      14.68013324      
H       20.27781823      10.06121595      14.95248647      
C       15.99798659       9.08039732      13.27375801      
H       16.06393505       8.96331895      12.24012348      
H       15.30489812       9.87521526      13.48995496      
H       15.49477659       8.20050122      13.67633869      
C       19.60453742       7.73891703      16.29306050      
H       18.78944707       7.29032945      16.82448761      
H       20.24440263       6.94075915      15.89755581      
C       20.32739842       8.60147421      17.30889909      
H       20.86029225       8.01892737      18.10070595      
H       20.89817613       9.41904607      17.07953474      
H       19.49506252       9.02681016      17.89078688      
N       18.11964299      12.74006385      21.46361564      
N       20.22863702      12.28634371      20.97871043      
C       19.35114619      13.19505147      21.31316334      
H       19.54113385      14.24876962      21.39801444      
C       18.27051234      11.37628327      21.34272521      
H       17.43005953      10.71614738      21.38307388      
C       19.46476076      11.10883042      20.98904569      
H       19.84423399      10.16279873      20.79543183      
C       16.89618821      13.50194851      21.84409486      
H       17.17571438      14.52875699      22.14587293      
H       16.33865452      13.08840784      22.63614558      
H       16.22699820      13.59923045      20.96726623      
C       21.60855440      12.62054714      20.56006977      
H       21.59622002      13.67405592      20.38511770      
H       22.32870460      12.49164989      21.33374180      
C       22.02469803      11.75277694      19.31226098      
H       21.29163472      11.75662251      18.47965116      
H       23.03318184      11.93864753      18.83489372      
H       22.03117622      10.74149819      19.63453851      
N        7.62776304      21.36669730      16.33365142      
N        6.00217141      21.18715107      15.02096621      
C        6.33627726      21.17998795      16.23162620      
H        5.73923512      20.70990387      16.99187500      
C        8.17689546      21.65812025      15.08769335      
H        9.21703721      21.90045582      14.99272337      
C        7.12003345      21.53391141      14.24342715      
H        7.02900324      21.61641265      13.16649555      
C        8.39631147      21.39981190      17.57953097      
H        8.77444344      20.45245014      17.86644652      
H        7.72855772      21.76525721      18.35550558      
H        9.23273105      22.08306466      17.48982507      
C        4.69729340      20.67478997      14.53543079      
H        4.83088961      19.66946157      14.11521245      
H        4.06283107      20.44012539      15.38820142      
C        3.94136296      21.65033186      13.51771966      
H        3.37815897      22.42534084      14.10580403      
H        4.42485358      22.14932532      12.71106520      
H        3.19717111      21.09222949      13.02879295      
N        6.80203354      21.71323494       1.21536034      
N        6.35399064      20.42944312      -0.39504328      
C        7.31224955      20.92667104       0.36982498      
H        8.29884273      20.65419491       0.33607662      
C        5.44479120      21.72596661       1.03320020      
H        4.85978132      22.10432634       1.81525507      
C        5.13320033      20.92853655       0.00658729      
H        4.16173869      20.52704978      -0.32795566      
C        7.43554303      22.50174566       2.26256858      
H        7.53496050      23.55892973       1.91724904      
H        8.45121476      22.15402697       2.48254343      
H        6.88726259      22.49872812       3.14889245      
C        6.63651270      19.53084757      -1.53919179      
H        6.57733075      20.02883701      -2.47205456      
H        7.64397708      19.21734334      -1.55614353      
C        5.89003626      18.21795125      -1.53303269      
H        6.25966319      17.71353845      -2.41516610      
H        5.99203932      17.58500244      -0.59305005      
H        4.82717490      18.36281341      -1.65348497      
N        1.81944486      17.61187702       0.05129836      
N        0.46356004      18.75209644      -1.12092320      
C        1.61690613      18.75371139      -0.51431654      